   22   22    1    2
  0.2070813E+02  0.8505152E-09  0.4086214E-09  0.1310872E-08  0.5000000E-15
  1.000000000000000E-004
  CAR 
 Ga2O3 Layers                            
    172    240    176
 
  0.0000000E+00  0.0000000E+00  0.0000000E+00  0.4166667E-02
    1      -25.184615    -25.184644   1.000000   1.000000
    2      -25.179206    -25.179235   1.000000   1.000000
    3      -25.047477    -25.047502   1.000000   1.000000
    4      -25.046918    -25.046944   1.000000   1.000000
    5      -25.032185    -25.032216   1.000000   1.000000
    6      -25.029275    -25.029306   1.000000   1.000000
    7      -24.918774    -24.918800   1.000000   1.000000
    8      -24.915921    -24.915948   1.000000   1.000000
    9      -12.309425    -12.309393   1.000000   1.000000
   10      -12.306216    -12.306184   1.000000   1.000000
   11      -12.285090    -12.285057   1.000000   1.000000
   12      -12.273152    -12.273119   1.000000   1.000000
   13      -12.020755    -12.020724   1.000000   1.000000
   14      -12.006621    -12.006590   1.000000   1.000000
   15      -11.001945    -11.001885   1.000000   1.000000
   16      -11.000962    -11.000901   1.000000   1.000000
   17       -9.151649     -9.151670   1.000000   1.000000
   18       -9.127223     -9.127245   1.000000   1.000000
   19       -9.058979     -9.058993   1.000000   1.000000
   20       -9.058115     -9.058137   1.000000   1.000000
   21       -9.041196     -9.041218   1.000000   1.000000
   22       -8.914225     -8.914242   1.000000   1.000000
   23       -8.836634     -8.836653   1.000000   1.000000
   24       -8.770151     -8.770173   1.000000   1.000000
   25       -8.769460     -8.769482   1.000000   1.000000
   26       -8.764394     -8.764415   1.000000   1.000000
   27       -8.763681     -8.763702   1.000000   1.000000
   28       -8.753831     -8.753849   1.000000   1.000000
   29       -8.737702     -8.737720   1.000000   1.000000
   30       -8.644357     -8.644375   1.000000   1.000000
   31       -8.609315     -8.609335   1.000000   1.000000
   32       -8.589427     -8.589448   1.000000   1.000000
   33       -8.554364     -8.554385   1.000000   1.000000
   34       -8.535250     -8.535271   1.000000   1.000000
   35       -8.122350     -8.122344   1.000000   1.000000
   36       -7.830016     -7.830010   1.000000   1.000000
   37       -7.574430     -7.574422   1.000000   1.000000
   38       -7.559677     -7.559668   1.000000   1.000000
   39       -7.494289     -7.494281   1.000000   1.000000
   40       -7.437992     -7.437982   1.000000   1.000000
   41       -6.667611     -6.667614   1.000000   1.000000
   42       -6.510486     -6.510486   1.000000   1.000000
   43       -5.184681     -5.184682   1.000000   1.000000
   44       -5.131263     -5.131263   1.000000   1.000000
   45       -4.920842     -4.920841   1.000000   1.000000
   46       -4.854380     -4.854379   1.000000   1.000000
   47        1.729526      1.729532   1.000000   1.000000
   48        2.113349      2.113357   1.000000   1.000000
   49        2.339502      2.339522   1.000000   1.000000
   50        2.516767      2.516766   1.000000   1.000000
   51        2.577551      2.577580   1.000000   1.000000
   52        2.613758      2.613780   1.000000   1.000000
   53        2.659541      2.659563   1.000000   1.000000
   54        2.776740      2.776758   1.000000   1.000000
   55        2.787470      2.787498   1.000000   1.000000
   56        2.801169      2.801197   1.000000   1.000000
   57        2.941447      2.941477   1.000000   1.000000
   58        2.954015      2.954042   1.000000   1.000000
   59        2.971946      2.971971   1.000000   1.000000
   60        2.975182      2.975201   1.000000   1.000000
   61        3.023597      3.023630   1.000000   1.000000
   62        3.055750      3.055778   1.000000   1.000000
   63        3.066450      3.066474   1.000000   1.000000
   64        3.086266      3.086295   1.000000   1.000000
   65        3.231711      3.231736   1.000000   1.000000
   66        3.233614      3.233630   1.000000   1.000000
   67        3.302373      3.302404   1.000000   1.000000
   68        3.383661      3.383685   1.000000   1.000000
   69        3.436685      3.436719   1.000000   1.000000
   70        3.716130      3.716163   1.000000   1.000000
   71        3.742383      3.742408   1.000000   1.000000
   72        3.816001      3.816045   1.000000   1.000000
   73        3.941029      3.941072   1.000000   1.000000
   74        4.153342      4.153352   1.000000   1.000000
   75        4.314994      4.315009   1.000000   1.000000
   76        4.375695      4.375698   1.000000   1.000000
   77        4.441442      4.441469   1.000000   1.000000
   78        4.637196      4.637215   1.000000   1.000000
   79        4.778921      4.778922   1.000000   1.000000
   80        5.066854      5.066859   1.000000   1.000000
   81        5.129472      5.129471   1.000000   1.000000
   82        5.245754      5.245752   1.000000   1.000000
   83        5.362004      5.362010   1.000000   1.000000
   84        5.502211      5.502216   1.000000   1.000000
   85        5.566742      5.566737   1.000000   1.000000
   86        5.776860      5.776860   1.000000   1.000000
   87        8.277425      8.277411   0.000000   0.000000
   88        8.693913      8.693898   0.000000   0.000000
   89        8.876390      8.876378   0.000000   0.000000
   90        8.992530      8.992509   0.000000   0.000000
   91        9.111665      9.111657   0.000000   0.000000
   92        9.122334      9.122307   0.000000   0.000000
   93        9.309471      9.309448   0.000000   0.000000
   94        9.357043      9.357015   0.000000   0.000000
   95        9.456408      9.456385   0.000000   0.000000
   96        9.520413      9.520374   0.000000   0.000000
   97        9.524739      9.524700   0.000000   0.000000
   98        9.525373      9.525345   0.000000   0.000000
   99        9.630067      9.630034   0.000000   0.000000
  100        9.700839      9.700806   0.000000   0.000000
  101        9.715218      9.715183   0.000000   0.000000
  102        9.732780      9.732741   0.000000   0.000000
  103        9.748530      9.748497   0.000000   0.000000
  104        9.765674      9.765646   0.000000   0.000000
  105        9.781063      9.781028   0.000000   0.000000
  106        9.801942      9.801914   0.000000   0.000000
  107        9.828853      9.828812   0.000000   0.000000
  108        9.832635      9.832597   0.000000   0.000000
  109        9.837639      9.837596   0.000000   0.000000
  110        9.863271      9.863242   0.000000   0.000000
  111        9.864123      9.864081   0.000000   0.000000
  112        9.868362      9.868325   0.000000   0.000000
  113        9.876260      9.876232   0.000000   0.000000
  114        9.892155      9.892121   0.000000   0.000000
  115        9.893571      9.893532   0.000000   0.000000
  116        9.896055      9.896021   0.000000   0.000000
  117        9.914654      9.914623   0.000000   0.000000
  118        9.932871      9.932840   0.000000   0.000000
  119        9.942808      9.942770   0.000000   0.000000
  120        9.956607      9.956577   0.000000   0.000000
  121        9.965297      9.965263   0.000000   0.000000
  122        9.979666      9.979633   0.000000   0.000000
  123        9.984928      9.984893   0.000000   0.000000
  124        9.989365      9.989323   0.000000   0.000000
  125       10.000440     10.000408   0.000000   0.000000
  126       10.009779     10.009747   0.000000   0.000000
  127       10.014287     10.014259   0.000000   0.000000
  128       10.032377     10.032341   0.000000   0.000000
  129       10.036156     10.036126   0.000000   0.000000
  130       10.070603     10.070572   0.000000   0.000000
  131       10.098234     10.098203   0.000000   0.000000
  132       10.111254     10.111220   0.000000   0.000000
  133       10.133686     10.133656   0.000000   0.000000
  134       10.153879     10.153838   0.000000   0.000000
  135       10.168739     10.168707   0.000000   0.000000
  136       10.202847     10.202814   0.000000   0.000000
  137       10.217345     10.217318   0.000000   0.000000
  138       10.227714     10.227682   0.000000   0.000000
  139       10.234021     10.233985   0.000000   0.000000
  140       10.250796     10.250759   0.000000   0.000000
  141       10.258532     10.258501   0.000000   0.000000
  142       10.279255     10.279222   0.000000   0.000000
  143       10.282936     10.282905   0.000000   0.000000
  144       10.291048     10.291019   0.000000   0.000000
  145       10.304930     10.304898   0.000000   0.000000
  146       10.329110     10.329081   0.000000   0.000000
  147       10.427729     10.427703   0.000000   0.000000
  148       10.428327     10.428303   0.000000   0.000000
  149       10.442684     10.442650   0.000000   0.000000
  150       10.459670     10.459649   0.000000   0.000000
  151       10.554498     10.554468   0.000000   0.000000
  152       10.595487     10.595465   0.000000   0.000000
  153       10.961839     10.961808   0.000000   0.000000
  154       11.004571     11.004547   0.000000   0.000000
  155       11.076898     11.076883   0.000000   0.000000
  156       11.145766     11.145743   0.000000   0.000000
  157       11.211417     11.211395   0.000000   0.000000
  158       11.255476     11.255450   0.000000   0.000000
  159       11.359637     11.359610   0.000000   0.000000
  160       11.432008     11.431985   0.000000   0.000000
  161       11.457561     11.457531   0.000000   0.000000
  162       11.463197     11.463181   0.000000   0.000000
  163       11.591852     11.591841   0.000000   0.000000
  164       11.698891     11.698896   0.000000   0.000000
  165       11.888552     11.888599   0.000000   0.000000
  166       12.019844     12.019819   0.000000   0.000000
  167       12.182117     12.181811   0.000000   0.000000
  168       12.227937     12.227921   0.000000   0.000000
  169       12.238635     12.238867   0.000000   0.000000
  170       12.396663     12.396285   0.000000   0.000000
  171       12.439718     12.439141   0.000000   0.000000
  172       12.468733     12.467953   0.000000   0.000000
  173       12.542970     12.543333   0.000000   0.000000
  174       13.014449     12.981564   0.000000   0.000000
  175       13.042853     13.082708   0.000000   0.000000
  176       13.151899     13.241456   0.000000   0.000000
 
  0.2631579E-01  0.0000000E+00  0.0000000E+00  0.4166667E-02
    1      -25.184504    -25.184533   1.000000   1.000000
    2      -25.179098    -25.179127   1.000000   1.000000
    3      -25.048167    -25.048193   1.000000   1.000000
    4      -25.047611    -25.047636   1.000000   1.000000
    5      -25.031622    -25.031653   1.000000   1.000000
    6      -25.028718    -25.028748   1.000000   1.000000
    7      -24.918751    -24.918778   1.000000   1.000000
    8      -24.915903    -24.915929   1.000000   1.000000
    9      -12.313903    -12.313872   1.000000   1.000000
   10      -12.309575    -12.309543   1.000000   1.000000
   11      -12.279188    -12.279155   1.000000   1.000000
   12      -12.268522    -12.268489   1.000000   1.000000
   13      -12.020651    -12.020620   1.000000   1.000000
   14      -12.006692    -12.006661   1.000000   1.000000
   15      -11.005043    -11.004982   1.000000   1.000000
   16      -11.004067    -11.004007   1.000000   1.000000
   17       -9.148283     -9.148304   1.000000   1.000000
   18       -9.126984     -9.127006   1.000000   1.000000
   19       -9.057895     -9.057917   1.000000   1.000000
   20       -9.055425     -9.055440   1.000000   1.000000
   21       -9.040990     -9.041013   1.000000   1.000000
   22       -8.915992     -8.916008   1.000000   1.000000
   23       -8.834667     -8.834685   1.000000   1.000000
   24       -8.777012     -8.777034   1.000000   1.000000
   25       -8.776116     -8.776138   1.000000   1.000000
   26       -8.757843     -8.757865   1.000000   1.000000
   27       -8.756944     -8.756966   1.000000   1.000000
   28       -8.754803     -8.754821   1.000000   1.000000
   29       -8.737339     -8.737357   1.000000   1.000000
   30       -8.644414     -8.644432   1.000000   1.000000
   31       -8.610186     -8.610207   1.000000   1.000000
   32       -8.593008     -8.593029   1.000000   1.000000
   33       -8.554450     -8.554471   1.000000   1.000000
   34       -8.535359     -8.535380   1.000000   1.000000
   35       -8.117769     -8.117763   1.000000   1.000000
   36       -7.831977     -7.831971   1.000000   1.000000
   37       -7.582099     -7.582092   1.000000   1.000000
   38       -7.559247     -7.559238   1.000000   1.000000
   39       -7.492590     -7.492581   1.000000   1.000000
   40       -7.432308     -7.432299   1.000000   1.000000
   41       -6.667554     -6.667557   1.000000   1.000000
   42       -6.510895     -6.510895   1.000000   1.000000
   43       -5.190774     -5.190774   1.000000   1.000000
   44       -5.137907     -5.137907   1.000000   1.000000
   45       -4.914408     -4.914407   1.000000   1.000000
   46       -4.847856     -4.847855   1.000000   1.000000
   47        1.730238      1.730245   1.000000   1.000000
   48        2.107432      2.107440   1.000000   1.000000
   49        2.340079      2.340099   1.000000   1.000000
   50        2.496773      2.496773   1.000000   1.000000
   51        2.576607      2.576636   1.000000   1.000000
   52        2.614114      2.614136   1.000000   1.000000
   53        2.670802      2.670824   1.000000   1.000000
   54        2.771078      2.771096   1.000000   1.000000
   55        2.787073      2.787100   1.000000   1.000000
   56        2.801815      2.801843   1.000000   1.000000
   57        2.941626      2.941655   1.000000   1.000000
   58        2.952773      2.952800   1.000000   1.000000
   59        2.972774      2.972799   1.000000   1.000000
   60        2.974708      2.974727   1.000000   1.000000
   61        3.015087      3.015118   1.000000   1.000000
   62        3.064877      3.064906   1.000000   1.000000
   63        3.070412      3.070436   1.000000   1.000000
   64        3.084889      3.084918   1.000000   1.000000
   65        3.225102      3.225125   1.000000   1.000000
   66        3.240598      3.240617   1.000000   1.000000
   67        3.296839      3.296870   1.000000   1.000000
   68        3.383215      3.383238   1.000000   1.000000
   69        3.444198      3.444231   1.000000   1.000000
   70        3.712846      3.712878   1.000000   1.000000
   71        3.749683      3.749709   1.000000   1.000000
   72        3.814917      3.814961   1.000000   1.000000
   73        3.941776      3.941819   1.000000   1.000000
   74        4.164098      4.164109   1.000000   1.000000
   75        4.315490      4.315505   1.000000   1.000000
   76        4.375631      4.375634   1.000000   1.000000
   77        4.440222      4.440249   1.000000   1.000000
   78        4.637110      4.637128   1.000000   1.000000
   79        4.779796      4.779797   1.000000   1.000000
   80        5.066012      5.066018   1.000000   1.000000
   81        5.136284      5.136284   1.000000   1.000000
   82        5.242724      5.242723   1.000000   1.000000
   83        5.364895      5.364901   1.000000   1.000000
   84        5.499495      5.499500   1.000000   1.000000
   85        5.570167      5.570162   1.000000   1.000000
   86        5.779466      5.779466   1.000000   1.000000
   87        8.278500      8.278486   0.000000   0.000000
   88        8.693809      8.693795   0.000000   0.000000
   89        8.869749      8.869737   0.000000   0.000000
   90        8.994918      8.994898   0.000000   0.000000
   91        9.088265      9.088252   0.000000   0.000000
   92        9.140007      9.139986   0.000000   0.000000
   93        9.304786      9.304763   0.000000   0.000000
   94        9.357311      9.357283   0.000000   0.000000
   95        9.451733      9.451709   0.000000   0.000000
   96        9.521069      9.521030   0.000000   0.000000
   97        9.525423      9.525384   0.000000   0.000000
   98        9.528520      9.528492   0.000000   0.000000
   99        9.631565      9.631532   0.000000   0.000000
  100        9.701027      9.700994   0.000000   0.000000
  101        9.714509      9.714475   0.000000   0.000000
  102        9.729681      9.729643   0.000000   0.000000
  103        9.750636      9.750602   0.000000   0.000000
  104        9.765324      9.765296   0.000000   0.000000
  105        9.783191      9.783156   0.000000   0.000000
  106        9.801749      9.801721   0.000000   0.000000
  107        9.828842      9.828800   0.000000   0.000000
  108        9.831820      9.831782   0.000000   0.000000
  109        9.837378      9.837335   0.000000   0.000000
  110        9.861629      9.861588   0.000000   0.000000
  111        9.863008      9.862979   0.000000   0.000000
  112        9.870872      9.870834   0.000000   0.000000
  113        9.876492      9.876463   0.000000   0.000000
  114        9.892038      9.892004   0.000000   0.000000
  115        9.893048      9.893009   0.000000   0.000000
  116        9.894364      9.894330   0.000000   0.000000
  117        9.914785      9.914755   0.000000   0.000000
  118        9.933230      9.933199   0.000000   0.000000
  119        9.942388      9.942351   0.000000   0.000000
  120        9.956002      9.955972   0.000000   0.000000
  121        9.965212      9.965178   0.000000   0.000000
  122        9.979164      9.979131   0.000000   0.000000
  123        9.984935      9.984900   0.000000   0.000000
  124        9.988767      9.988725   0.000000   0.000000
  125       10.000506     10.000474   0.000000   0.000000
  126       10.008953     10.008920   0.000000   0.000000
  127       10.014988     10.014959   0.000000   0.000000
  128       10.033610     10.033573   0.000000   0.000000
  129       10.036390     10.036359   0.000000   0.000000
  130       10.070699     10.070668   0.000000   0.000000
  131       10.095793     10.095761   0.000000   0.000000
  132       10.111061     10.111027   0.000000   0.000000
  133       10.133518     10.133488   0.000000   0.000000
  134       10.153928     10.153887   0.000000   0.000000
  135       10.168180     10.168147   0.000000   0.000000
  136       10.202912     10.202880   0.000000   0.000000
  137       10.205736     10.205706   0.000000   0.000000
  138       10.233545     10.233510   0.000000   0.000000
  139       10.242015     10.241986   0.000000   0.000000
  140       10.250777     10.250741   0.000000   0.000000
  141       10.256153     10.256121   0.000000   0.000000
  142       10.279073     10.279040   0.000000   0.000000
  143       10.282481     10.282451   0.000000   0.000000
  144       10.291401     10.291371   0.000000   0.000000
  145       10.305198     10.305166   0.000000   0.000000
  146       10.330141     10.330112   0.000000   0.000000
  147       10.405375     10.405350   0.000000   0.000000
  148       10.444214     10.444180   0.000000   0.000000
  149       10.452663     10.452640   0.000000   0.000000
  150       10.461154     10.461133   0.000000   0.000000
  151       10.555044     10.555014   0.000000   0.000000
  152       10.597633     10.597612   0.000000   0.000000
  153       10.962795     10.962764   0.000000   0.000000
  154       11.000702     11.000677   0.000000   0.000000
  155       11.076643     11.076629   0.000000   0.000000
  156       11.152689     11.152667   0.000000   0.000000
  157       11.213419     11.213395   0.000000   0.000000
  158       11.252288     11.252262   0.000000   0.000000
  159       11.362435     11.362411   0.000000   0.000000
  160       11.418561     11.418536   0.000000   0.000000
  161       11.456115     11.456090   0.000000   0.000000
  162       11.479966     11.479945   0.000000   0.000000
  163       11.588402     11.588388   0.000000   0.000000
  164       11.701967     11.701941   0.000000   0.000000
  165       11.889968     11.889927   0.000000   0.000000
  166       12.018858     12.018735   0.000000   0.000000
  167       12.180911     12.180919   0.000000   0.000000
  168       12.214583     12.214553   0.000000   0.000000
  169       12.249993     12.249900   0.000000   0.000000
  170       12.393010     12.393346   0.000000   0.000000
  171       12.438106     12.438415   0.000000   0.000000
  172       12.467020     12.466149   0.000000   0.000000
  173       12.540689     12.540550   0.000000   0.000000
  174       12.988846     12.988928   0.000000   0.000000
  175       13.087829     13.121029   0.000000   0.000000
  176       13.178995     13.298829   0.000000   0.000000
 
  0.5263158E-01  0.0000000E+00  0.0000000E+00  0.4166667E-02
    1      -25.184172    -25.184202   1.000000   1.000000
    2      -25.178777    -25.178806   1.000000   1.000000
    3      -25.050010    -25.050036   1.000000   1.000000
    4      -25.049454    -25.049480   1.000000   1.000000
    5      -25.030181    -25.030212   1.000000   1.000000
    6      -25.027256    -25.027286   1.000000   1.000000
    7      -24.918687    -24.918713   1.000000   1.000000
    8      -24.915848    -24.915874   1.000000   1.000000
    9      -12.321999    -12.321968   1.000000   1.000000
   10      -12.316535    -12.316503   1.000000   1.000000
   11      -12.266877    -12.266844   1.000000   1.000000
   12      -12.257774    -12.257741   1.000000   1.000000
   13      -12.020294    -12.020263   1.000000   1.000000
   14      -12.006879    -12.006848   1.000000   1.000000
   15      -11.014259    -11.014199   1.000000   1.000000
   16      -11.013290    -11.013230   1.000000   1.000000
   17       -9.138278     -9.138299   1.000000   1.000000
   18       -9.126129     -9.126148   1.000000   1.000000
   19       -9.057238     -9.057260   1.000000   1.000000
   20       -9.045000     -9.045016   1.000000   1.000000
   21       -9.040375     -9.040398   1.000000   1.000000
   22       -8.920779     -8.920796   1.000000   1.000000
   23       -8.829270     -8.829288   1.000000   1.000000
   24       -8.786476     -8.786497   1.000000   1.000000
   25       -8.784770     -8.784792   1.000000   1.000000
   26       -8.757496     -8.757515   1.000000   1.000000
   27       -8.749548     -8.749569   1.000000   1.000000
   28       -8.747813     -8.747834   1.000000   1.000000
   29       -8.736465     -8.736484   1.000000   1.000000
   30       -8.644613     -8.644632   1.000000   1.000000
   31       -8.612767     -8.612788   1.000000   1.000000
   32       -8.603268     -8.603288   1.000000   1.000000
   33       -8.554705     -8.554726   1.000000   1.000000
   34       -8.535688     -8.535709   1.000000   1.000000
   35       -8.104488     -8.104482   1.000000   1.000000
   36       -7.837803     -7.837797   1.000000   1.000000
   37       -7.602174     -7.602166   1.000000   1.000000
   38       -7.557842     -7.557833   1.000000   1.000000
   39       -7.487725     -7.487717   1.000000   1.000000
   40       -7.418188     -7.418179   1.000000   1.000000
   41       -6.667384     -6.667387   1.000000   1.000000
   42       -6.512114     -6.512113   1.000000   1.000000
   43       -5.207399     -5.207400   1.000000   1.000000
   44       -5.156115     -5.156115   1.000000   1.000000
   45       -4.896760     -4.896759   1.000000   1.000000
   46       -4.830009     -4.830008   1.000000   1.000000
   47        1.732364      1.732371   1.000000   1.000000
   48        2.089960      2.089968   1.000000   1.000000
   49        2.341887      2.341907   1.000000   1.000000
   50        2.448793      2.448793   1.000000   1.000000
   51        2.574862      2.574891   1.000000   1.000000
   52        2.615176      2.615198   1.000000   1.000000
   53        2.692729      2.692750   1.000000   1.000000
   54        2.756825      2.756844   1.000000   1.000000
   55        2.785914      2.785941   1.000000   1.000000
   56        2.803207      2.803235   1.000000   1.000000
   57        2.942110      2.942140   1.000000   1.000000
   58        2.949170      2.949197   1.000000   1.000000
   59        2.973413      2.973432   1.000000   1.000000
   60        2.975275      2.975300   1.000000   1.000000
   61        2.999615      2.999646   1.000000   1.000000
   62        3.079589      3.079615   1.000000   1.000000
   63        3.080291      3.080319   1.000000   1.000000
   64        3.082190      3.082220   1.000000   1.000000
   65        3.216612      3.216636   1.000000   1.000000
   66        3.249447      3.249465   1.000000   1.000000
   67        3.279590      3.279622   1.000000   1.000000
   68        3.381877      3.381901   1.000000   1.000000
   69        3.467941      3.467974   1.000000   1.000000
   70        3.711126      3.711156   1.000000   1.000000
   71        3.763902      3.763929   1.000000   1.000000
   72        3.811670      3.811714   1.000000   1.000000
   73        3.943989      3.944032   1.000000   1.000000
   74        4.194873      4.194883   1.000000   1.000000
   75        4.317178      4.317193   1.000000   1.000000
   76        4.375441      4.375444   1.000000   1.000000
   77        4.437321      4.437346   1.000000   1.000000
   78        4.636854      4.636873   1.000000   1.000000
   79        4.782461      4.782464   1.000000   1.000000
   80        5.063571      5.063577   1.000000   1.000000
   81        5.156099      5.156099   1.000000   1.000000
   82        5.234070      5.234068   1.000000   1.000000
   83        5.373498      5.373504   1.000000   1.000000
   84        5.491700      5.491704   1.000000   1.000000
   85        5.580000      5.579995   1.000000   1.000000
   86        5.786936      5.786936   1.000000   1.000000
   87        8.281685      8.281670   0.000000   0.000000
   88        8.693382      8.693368   0.000000   0.000000
   89        8.851203      8.851191   0.000000   0.000000
   90        9.000098      9.000078   0.000000   0.000000
   91        9.054013      9.054001   0.000000   0.000000
   92        9.156678      9.156657   0.000000   0.000000
   93        9.292467      9.292443   0.000000   0.000000
   94        9.356840      9.356812   0.000000   0.000000
   95        9.440553      9.440528   0.000000   0.000000
   96        9.523023      9.522983   0.000000   0.000000
   97        9.527461      9.527422   0.000000   0.000000
   98        9.536878      9.536850   0.000000   0.000000
   99        9.635459      9.635427   0.000000   0.000000
  100        9.701583      9.701550   0.000000   0.000000
  101        9.712850      9.712815   0.000000   0.000000
  102        9.722714      9.722678   0.000000   0.000000
  103        9.754650      9.754615   0.000000   0.000000
  104        9.764267      9.764239   0.000000   0.000000
  105        9.788827      9.788792   0.000000   0.000000
  106        9.801160      9.801131   0.000000   0.000000
  107        9.828780      9.828739   0.000000   0.000000
  108        9.829439      9.829401   0.000000   0.000000
  109        9.836635      9.836593   0.000000   0.000000
  110        9.857965      9.857924   0.000000   0.000000
  111        9.862273      9.862245   0.000000   0.000000
  112        9.874386      9.874350   0.000000   0.000000
  113        9.877363      9.877332   0.000000   0.000000
  114        9.889564      9.889530   0.000000   0.000000
  115        9.891538      9.891500   0.000000   0.000000
  116        9.891697      9.891663   0.000000   0.000000
  117        9.915166      9.915136   0.000000   0.000000
  118        9.934117      9.934086   0.000000   0.000000
  119        9.941197      9.941159   0.000000   0.000000
  120        9.954235      9.954206   0.000000   0.000000
  121        9.964960      9.964927   0.000000   0.000000
  122        9.977576      9.977544   0.000000   0.000000
  123        9.984949      9.984914   0.000000   0.000000
  124        9.987155      9.987113   0.000000   0.000000
  125       10.000652     10.000620   0.000000   0.000000
  126       10.006896     10.006863   0.000000   0.000000
  127       10.016952     10.016923   0.000000   0.000000
  128       10.036868     10.036832   0.000000   0.000000
  129       10.036969     10.036938   0.000000   0.000000
  130       10.070929     10.070898   0.000000   0.000000
  131       10.089365     10.089334   0.000000   0.000000
  132       10.110490     10.110455   0.000000   0.000000
  133       10.131973     10.131945   0.000000   0.000000
  134       10.154074     10.154033   0.000000   0.000000
  135       10.166547     10.166515   0.000000   0.000000
  136       10.195154     10.195121   0.000000   0.000000
  137       10.203109     10.203076   0.000000   0.000000
  138       10.232154     10.232118   0.000000   0.000000
  139       10.245880     10.245844   0.000000   0.000000
  140       10.249045     10.249014   0.000000   0.000000
  141       10.265777     10.265747   0.000000   0.000000
  142       10.278530     10.278497   0.000000   0.000000
  143       10.281278     10.281248   0.000000   0.000000
  144       10.292337     10.292308   0.000000   0.000000
  145       10.306126     10.306094   0.000000   0.000000
  146       10.333151     10.333122   0.000000   0.000000
  147       10.386090     10.386063   0.000000   0.000000
  148       10.448724     10.448691   0.000000   0.000000
  149       10.465633     10.465611   0.000000   0.000000
  150       10.477933     10.477910   0.000000   0.000000
  151       10.556674     10.556643   0.000000   0.000000
  152       10.603888     10.603866   0.000000   0.000000
  153       10.965662     10.965631   0.000000   0.000000
  154       10.990888     10.990864   0.000000   0.000000
  155       11.075866     11.075851   0.000000   0.000000
  156       11.171320     11.171298   0.000000   0.000000
  157       11.219548     11.219525   0.000000   0.000000
  158       11.243547     11.243520   0.000000   0.000000